============================== echo of input deck ==============================
start qmd_dft_h2o_svr
echo
print medium
geometry noautosym noautoz
  O   0.00000000    -0.01681748     0.11334792
  H   0.00000000     0.81325914    -0.34310308
  H   0.00000000    -0.67863597    -0.56441201
end
basis
  * library 6-31G*
end
dft
  xc pbe0
end
qmd
  nstep_nucl  5
  dt_nucl     10.0
  targ_temp   200.0
  com_step    10
  thermostat  svr 100.0
  print_xyz   5
end
task dft qmd
================================================================================

 Output coordinates in angstroms (scale by  1.889725989 to convert to a.u.)

  No.       Tag          Charge          X              Y              Z
 ---- ---------------- ---------- -------------- -------------- --------------
    1 O                    8.0000     0.00000000    -0.01682581     0.11342109
    2 H                    1.0000     0.00000000     0.81325081    -0.34302991
    3 H                    1.0000     0.00000000    -0.67864430    -0.56433884

         Total DFT energy =      -76.325066149291

 Vector   11  Occ=0.000000D+00  E= 9.176140D-01

 Vector   12  Occ=0.000000D+00  E= 1.100661D+00

 Vector   13  Occ=0.000000D+00  E= 1.207589D+00

 Vector   14  Occ=0.000000D+00  E= 1.737999D+00

 Vector   15  Occ=0.000000D+00  E= 1.748283D+00

         Total DFT energy =      -76.325047058254

 Vector    1  Occ=2.000000D+00  E=-1.920671D+01

 Vector    2  Occ=2.000000D+00  E=-1.030924D+00

 Vector    3  Occ=2.000000D+00  E=-5.422326D-01

 Vector    4  Occ=2.000000D+00  E=-3.831200D-01

 Vector    5  Occ=2.000000D+00  E=-3.051788D-01

 Vector    6  Occ=0.000000D+00  E= 8.701074D-02

 Vector    7  Occ=0.000000D+00  E= 1.741308D-01

 Vector    8  Occ=0.000000D+00  E= 8.108564D-01

 Vector    9  Occ=0.000000D+00  E= 9.003133D-01

 Vector   10  Occ=0.000000D+00  E= 9.162224D-01

 Vector   11  Occ=0.000000D+00  E= 9.177184D-01

 Vector   12  Occ=0.000000D+00  E= 1.100852D+00

 Vector   13  Occ=0.000000D+00  E= 1.206102D+00

 Vector   14  Occ=0.000000D+00  E= 1.739509D+00

 Vector   15  Occ=0.000000D+00  E= 1.748086D+00

         Total DFT energy =      -76.324973593207

 Vector    1  Occ=2.000000D+00  E=-1.920670D+01

 Vector    2  Occ=2.000000D+00  E=-1.029982D+00

 Vector    3  Occ=2.000000D+00  E=-5.424801D-01

 Vector    4  Occ=2.000000D+00  E=-3.820967D-01

 Vector    5  Occ=2.000000D+00  E=-3.049269D-01

 Vector    6  Occ=0.000000D+00  E= 8.662529D-02

 Vector    7  Occ=0.000000D+00  E= 1.738261D-01

 Vector    8  Occ=0.000000D+00  E= 8.117891D-01

 Vector    9  Occ=0.000000D+00  E= 8.979366D-01

 Vector   10  Occ=0.000000D+00  E= 9.156118D-01

 Vector   11  Occ=0.000000D+00  E= 9.178335D-01

 Vector   12  Occ=0.000000D+00  E= 1.100969D+00

 Vector   13  Occ=0.000000D+00  E= 1.204481D+00

 Vector   14  Occ=0.000000D+00  E= 1.741214D+00

 Vector   15  Occ=0.000000D+00  E= 1.748008D+00

         Total DFT energy =      -76.324884772552

 Vector    1  Occ=2.000000D+00  E=-1.920677D+01

 Vector    2  Occ=2.000000D+00  E=-1.029069D+00

 Vector    3  Occ=2.000000D+00  E=-5.424746D-01

 Vector    4  Occ=2.000000D+00  E=-3.812722D-01

 Vector    5  Occ=2.000000D+00  E=-3.046960D-01

 Vector    6  Occ=0.000000D+00  E= 8.615412D-02

 Vector    7  Occ=0.000000D+00  E= 1.734435D-01

 Vector    8  Occ=0.000000D+00  E= 8.121171D-01

 Vector    9  Occ=0.000000D+00  E= 8.956494D-01

 Vector   10  Occ=0.000000D+00  E= 9.152969D-01

 Vector   11  Occ=0.000000D+00  E= 9.179266D-01

 Vector   12  Occ=0.000000D+00  E= 1.100975D+00

 Vector   13  Occ=0.000000D+00  E= 1.203168D+00

 Vector   14  Occ=0.000000D+00  E= 1.742626D+00

 Vector   15  Occ=0.000000D+00  E= 1.748056D+00

         Total DFT energy =      -76.324800238144

 Vector    1  Occ=2.000000D+00  E=-1.920691D+01

 Vector    2  Occ=2.000000D+00  E=-1.028089D+00

 Vector    3  Occ=2.000000D+00  E=-5.422700D-01

 Vector    4  Occ=2.000000D+00  E=-3.805322D-01

 Vector    5  Occ=2.000000D+00  E=-3.044593D-01

 Vector    6  Occ=0.000000D+00  E= 8.559531D-02

 Vector    7  Occ=0.000000D+00  E= 1.729591D-01

 Vector    8  Occ=0.000000D+00  E= 8.120788D-01

 Vector    9  Occ=0.000000D+00  E= 8.932062D-01

 Vector   10  Occ=0.000000D+00  E= 9.151350D-01

 Vector   11  Occ=0.000000D+00  E= 9.180113D-01

 Vector   12  Occ=0.000000D+00  E= 1.100875D+00

 Vector   13  Occ=0.000000D+00  E= 1.201970D+00

 Vector   14  Occ=0.000000D+00  E= 1.743930D+00

 Vector   15  Occ=0.000000D+00  E= 1.748211D+00

         Total DFT energy =      -76.324754590643

                       DFT Final Molecular Orbital Analysis
                       ------------------------------------

 Vector    1  Occ=2.000000D+00  E=-1.920708D+01

 Vector    2  Occ=2.000000D+00  E=-1.027248D+00

 Vector    3  Occ=2.000000D+00  E=-5.419612D-01

 Vector    4  Occ=2.000000D+00  E=-3.800047D-01

 Vector    5  Occ=2.000000D+00  E=-3.042662D-01

 Vector    6  Occ=0.000000D+00  E= 8.509770D-02

 Vector    7  Occ=0.000000D+00  E= 1.724873D-01

 Vector    8  Occ=0.000000D+00  E= 8.118481D-01

 Vector    9  Occ=0.000000D+00  E= 8.910847D-01

 Vector   10  Occ=0.000000D+00  E= 9.150860D-01

 Vector   11  Occ=0.000000D+00  E= 9.180718D-01

 Vector   12  Occ=0.000000D+00  E= 1.100702D+00

 Vector   13  Occ=0.000000D+00  E= 1.201084D+00

 Vector   14  Occ=0.000000D+00  E= 1.744890D+00

 Vector   15  Occ=0.000000D+00  E= 1.748418D+00

     Multipole analysis of the density
     ---------------------------------

     L   x y z        total         alpha         beta         nuclear
     -   - - -        -----         -----         ----         -------
     0   0 0 0     -0.000000     -5.000000     -5.000000     10.000000

     1   1 0 0     -0.000000     -0.000000     -0.000000      0.000000
     1   0 1 0      0.126996      0.054258      0.054258      0.018481
     1   0 0 1     -0.803062     -0.409079     -0.409079      0.015095

     2   2 0 0     -5.345080     -2.672540     -2.672540      0.000000
     2   1 1 0     -0.000000     -0.000000     -0.000000      0.000000
     2   1 0 1      0.000000     -0.000000     -0.000000      0.000000
     2   0 2 0     -3.069646     -3.628242     -3.628242      4.186838
     2   0 1 1      0.184433     -0.039800     -0.039800      0.264033

 Total times  cpu:        3.0s     wall:        3.2s
