============================== echo of input deck ==============================
title "WATER 6-311G* meta-GGA XC geometry"
echo
geometry units angstroms
 O       0.00000000     0.00000000    -0.06392934
 H       0.76924532     0.00000000     0.52693942
 H       -0.76924532     0.00000000     0.52693942
end
basis
 H library 6-311G*
 O library 6-311G*
end
dft
 iterations 50
 print  kinetic_energy
 xc optx lyp
 decomp
end
task dft energy
================================================================================

 Output coordinates in angstroms (scale by  1.889725989 to convert to a.u.)

  No.       Tag          Charge          X              Y              Z
 ---- ---------------- ---------- -------------- -------------- --------------
    1 O                    8.0000     0.00000000     0.00000000    -0.11817375
    2 H                    1.0000     0.76924532     0.00000000     0.47269501
    3 H                    1.0000    -0.76924532     0.00000000     0.47269501

         Total DFT energy =      -76.407969120359

                       DFT Final Molecular Orbital Analysis
                       ------------------------------------

 Vector    1  Occ=2.000000D+00  E=-1.873957D+01  Symmetry=a1

 Vector    2  Occ=2.000000D+00  E=-9.165219D-01  Symmetry=a1

 Vector    3  Occ=2.000000D+00  E=-4.682750D-01  Symmetry=b1

 Vector    4  Occ=2.000000D+00  E=-3.108975D-01  Symmetry=a1

 Vector    5  Occ=2.000000D+00  E=-2.309978D-01  Symmetry=b2

 Vector    6  Occ=0.000000D+00  E=-3.314641D-03  Symmetry=a1

 Vector    7  Occ=0.000000D+00  E= 6.902732D-02  Symmetry=b1

 Vector    8  Occ=0.000000D+00  E= 3.383245D-01  Symmetry=b1

 Vector    9  Occ=0.000000D+00  E= 3.735257D-01  Symmetry=a1

 Vector   10  Occ=0.000000D+00  E= 7.368282D-01  Symmetry=b2

 Vector   11  Occ=0.000000D+00  E= 7.503042D-01  Symmetry=a1

 Vector   12  Occ=0.000000D+00  E= 8.579778D-01  Symmetry=b1

 Vector   13  Occ=0.000000D+00  E= 1.021185D+00  Symmetry=a1

 Vector   14  Occ=0.000000D+00  E= 1.946369D+00  Symmetry=b1

 Vector   15  Occ=0.000000D+00  E= 1.984377D+00  Symmetry=a1

     Multipole analysis of the density
     ---------------------------------

     L   x y z        total         alpha         beta         nuclear
     -   - - -        -----         -----         ----         -------
     0   0 0 0     -0.000000     -5.000000     -5.000000     10.000000

     1   1 0 0      0.000000      0.000000      0.000000      0.000000
     1   0 1 0      0.000000      0.000000      0.000000      0.000000
     1   0 0 1      0.865700      0.432850      0.432850      0.000000

     2   2 0 0     -3.185061     -3.705666     -3.705666      4.226271
     2   1 1 0      0.000000      0.000000      0.000000      0.000000
     2   1 0 1     -0.000000     -0.000000     -0.000000      0.000000
     2   0 2 0     -5.443517     -2.721759     -2.721759      0.000000
     2   0 1 1      0.000000      0.000000      0.000000      0.000000

 Total times  cpu:        0.3s     wall:        0.3s
