============================== echo of input deck ==============================
title "WATER 6-311G* meta-GGA XC geometry"
echo
geometry units angstroms
 O       0.00000000     0.00000000    -0.06392934
 H       0.76924532     0.00000000     0.52693942
 H       -0.76924532     0.00000000     0.52693942
end
basis
 H library 6-311G*
 O library 6-311G*
end
dft
 iterations 50
 print  kinetic_energy
 xc becke88 perdew91
 decomp
end
task dft energy
================================================================================

 Output coordinates in angstroms (scale by  1.889725989 to convert to a.u.)

  No.       Tag          Charge          X              Y              Z
 ---- ---------------- ---------- -------------- -------------- --------------
    1 O                    8.0000     0.00000000     0.00000000    -0.11817375
    2 H                    1.0000     0.76924532     0.00000000     0.47269501
    3 H                    1.0000    -0.76924532     0.00000000     0.47269501

         Total DFT energy =      -76.426260391436

                       DFT Final Molecular Orbital Analysis
                       ------------------------------------

 Vector    1  Occ=2.000000D+00  E=-1.874391D+01  Symmetry=a1

 Vector    2  Occ=2.000000D+00  E=-9.150243D-01  Symmetry=a1

 Vector    3  Occ=2.000000D+00  E=-4.725597D-01  Symmetry=b1

 Vector    4  Occ=2.000000D+00  E=-3.150796D-01  Symmetry=a1

 Vector    5  Occ=2.000000D+00  E=-2.373335D-01  Symmetry=b2

 Vector    6  Occ=0.000000D+00  E= 1.367713D-02  Symmetry=a1

 Vector    7  Occ=0.000000D+00  E= 9.007298D-02  Symmetry=b1

 Vector    8  Occ=0.000000D+00  E= 3.427263D-01  Symmetry=b1

 Vector    9  Occ=0.000000D+00  E= 3.777534D-01  Symmetry=a1

 Vector   10  Occ=0.000000D+00  E= 7.187880D-01  Symmetry=b2

 Vector   11  Occ=0.000000D+00  E= 7.340190D-01  Symmetry=a1

 Vector   12  Occ=0.000000D+00  E= 8.445387D-01  Symmetry=b1

 Vector   13  Occ=0.000000D+00  E= 1.012692D+00  Symmetry=a1

 Vector   14  Occ=0.000000D+00  E= 1.941280D+00  Symmetry=b1

 Vector   15  Occ=0.000000D+00  E= 1.980279D+00  Symmetry=a1

     Multipole analysis of the density
     ---------------------------------

     L   x y z        total         alpha         beta         nuclear
     -   - - -        -----         -----         ----         -------
     0   0 0 0     -0.000000     -5.000000     -5.000000     10.000000

     1   1 0 0     -0.000000     -0.000000     -0.000000      0.000000
     1   0 1 0      0.000000      0.000000      0.000000      0.000000
     1   0 0 1      0.888698      0.444349      0.444349      0.000000

     2   2 0 0     -3.166448     -3.696360     -3.696360      4.226271
     2   1 1 0      0.000000      0.000000      0.000000      0.000000
     2   1 0 1     -0.000000     -0.000000     -0.000000      0.000000
     2   0 2 0     -5.472314     -2.736157     -2.736157      0.000000
     2   0 1 1      0.000000      0.000000      0.000000      0.000000

 Total times  cpu:        0.3s     wall:        0.3s
